0.00000  0  0  5  0  cwnd_ 1.000 
0.00000  2  0  6  0  cwnd_ 1.000 
+ 0.1 0 1 tcp 40 ------- 0 0.0 5.0 0 0
- 0.1 0 1 tcp 40 ------- 0 0.0 5.0 0 0
r 0.11032 0 1 tcp 40 ------- 0 0.0 5.0 0 0
h 0.11032 1 7 tcp 40 ------- 0 0.0 5.0 0 0
+ 0.12032 1 7 tcp 40 ------- 0 0.0 5.0 0 0
- 0.12032 1 7 tcp 40 ------- 0 0.0 5.0 0 0
r 0.130375 7 5 tcp 40 ------- 0 0.0 5.0 0 0
h 0.130375 5 7 ack 40 ------- 0 5.0 0.0 0 1
+ 0.140375 5 7 ack 40 ------- 0 5.0 0.0 0 1
- 0.140375 5 7 ack 40 ------- 0 5.0 0.0 0 1
r 0.15043 7 1 ack 40 ------- 0 5.0 0.0 0 1
+ 0.15043 1 0 ack 40 ------- 0 5.0 0.0 0 1
- 0.15043 1 0 ack 40 ------- 0 5.0 0.0 0 1
r 0.16075 1 0 ack 40 ------- 0 5.0 0.0 0 1
0.16075  0  0  5  0  cwnd_ 2.000 
+ 0.16075 0 1 tcp 1040 ------- 0 0.0 5.0 1 2
- 0.16075 0 1 tcp 1040 ------- 0 0.0 5.0 1 2
+ 0.16075 0 1 tcp 1040 ------- 0 0.0 5.0 2 3
- 0.16907 0 1 tcp 1040 ------- 0 0.0 5.0 2 3
r 0.17907 0 1 tcp 1040 ------- 0 0.0 5.0 1 2
h 0.17907 1 7 tcp 1040 ------- 0 0.0 5.0 1 2
r 0.18739 0 1 tcp 1040 ------- 0 0.0 5.0 2 3
h 0.18739 1 7 tcp 1040 ------- 0 0.0 5.0 2 3
+ 0.18907 1 7 tcp 1040 ------- 0 0.0 5.0 1 2
- 0.18907 1 7 tcp 1040 ------- 0 0.0 5.0 1 2
+ 0.19739 1 7 tcp 1040 ------- 0 0.0 5.0 2 3
- 0.19739 1 7 tcp 1040 ------- 0 0.0 5.0 2 3
r 0.199918 7 5 tcp 1040 ------- 0 0.0 5.0 1 2
h 0.199918 5 7 ack 40 ------- 0 5.0 0.0 1 4
h 0.2 2 7 tcp 40 ------- 0 2.0 6.0 0 5
r 0.208238 7 5 tcp 1040 ------- 0 0.0 5.0 2 3
h 0.208238 5 7 ack 40 ------- 0 5.0 0.0 2 6
+ 0.209918 5 7 ack 40 ------- 0 5.0 0.0 1 4
- 0.209918 5 7 ack 40 ------- 0 5.0 0.0 1 4
+ 0.21 2 7 tcp 40 ------- 0 2.0 6.0 0 5
- 0.21 2 7 tcp 40 ------- 0 2.0 6.0 0 5
+ 0.218238 5 7 ack 40 ------- 0 5.0 0.0 2 6
- 0.218238 5 7 ack 40 ------- 0 5.0 0.0 2 6
r 0.219973 7 1 ack 40 ------- 0 5.0 0.0 1 4
+ 0.219973 1 0 ack 40 ------- 0 5.0 0.0 1 4
- 0.219973 1 0 ack 40 ------- 0 5.0 0.0 1 4
r 0.220055 7 6 tcp 40 ------- 0 2.0 6.0 0 5
h 0.220055 6 7 ack 40 ------- 0 6.0 2.0 0 7
r 0.228293 7 1 ack 40 ------- 0 5.0 0.0 2 6
+ 0.228293 1 0 ack 40 ------- 0 5.0 0.0 2 6
- 0.228293 1 0 ack 40 ------- 0 5.0 0.0 2 6
+ 0.230055 6 7 ack 40 ------- 0 6.0 2.0 0 7
- 0.230055 6 7 ack 40 ------- 0 6.0 2.0 0 7
r 0.230293 1 0 ack 40 ------- 0 5.0 0.0 1 4
0.23029  0  0  5  0  cwnd_ 3.000 
+ 0.230293 0 1 tcp 1040 ------- 0 0.0 5.0 3 8
- 0.230293 0 1 tcp 1040 ------- 0 0.0 5.0 3 8
+ 0.230293 0 1 tcp 1040 ------- 0 0.0 5.0 4 9
r 0.238613 1 0 ack 40 ------- 0 5.0 0.0 2 6
0.23861  0  0  5  0  cwnd_ 4.000 
+ 0.238613 0 1 tcp 1040 ------- 0 0.0 5.0 5 10
+ 0.238613 0 1 tcp 1040 ------- 0 0.0 5.0 6 11
- 0.238613 0 1 tcp 1040 ------- 0 0.0 5.0 4 9
r 0.24011 7 2 ack 40 ------- 0 6.0 2.0 0 7
0.24011  2  0  6  0  cwnd_ 2.000 
h 0.24011 2 7 tcp 1040 ------- 0 2.0 6.0 1 12
h 0.24011 2 7 tcp 1040 ------- 0 2.0 6.0 2 13
- 0.246933 0 1 tcp 1040 ------- 0 0.0 5.0 5 10
r 0.248613 0 1 tcp 1040 ------- 0 0.0 5.0 3 8
h 0.248613 1 7 tcp 1040 ------- 0 0.0 5.0 3 8
+ 0.25011 2 7 tcp 1040 ------- 0 2.0 6.0 1 12
- 0.25011 2 7 tcp 1040 ------- 0 2.0 6.0 1 12
+ 0.25011 2 7 tcp 1040 ------- 0 2.0 6.0 2 13
- 0.250963 2 7 tcp 1040 ------- 0 2.0 6.0 2 13
- 0.255253 0 1 tcp 1040 ------- 0 0.0 5.0 6 11
r 0.256933 0 1 tcp 1040 ------- 0 0.0 5.0 4 9
h 0.256933 1 7 tcp 1040 ------- 0 0.0 5.0 4 9
+ 0.258613 1 7 tcp 1040 ------- 0 0.0 5.0 3 8
- 0.258613 1 7 tcp 1040 ------- 0 0.0 5.0 3 8
r 0.260958 7 6 tcp 1040 ------- 0 2.0 6.0 1 12
h 0.260958 6 7 ack 40 ------- 0 6.0 2.0 1 14
r 0.26181 7 6 tcp 1040 ------- 0 2.0 6.0 2 13
h 0.26181 6 7 ack 40 ------- 0 6.0 2.0 2 15
r 0.265253 0 1 tcp 1040 ------- 0 0.0 5.0 5 10
h 0.265253 1 7 tcp 1040 ------- 0 0.0 5.0 5 10
+ 0.266933 1 7 tcp 1040 ------- 0 0.0 5.0 4 9
- 0.266933 1 7 tcp 1040 ------- 0 0.0 5.0 4 9
r 0.26946 7 5 tcp 1040 ------- 0 0.0 5.0 3 8
h 0.26946 5 7 ack 40 ------- 0 5.0 0.0 3 16
+ 0.270958 6 7 ack 40 ------- 0 6.0 2.0 1 14
- 0.270958 6 7 ack 40 ------- 0 6.0 2.0 1 14
+ 0.27181 6 7 ack 40 ------- 0 6.0 2.0 2 15
- 0.27181 6 7 ack 40 ------- 0 6.0 2.0 2 15
r 0.273573 0 1 tcp 1040 ------- 0 0.0 5.0 6 11
h 0.273573 1 7 tcp 1040 ------- 0 0.0 5.0 6 11
+ 0.275253 1 7 tcp 1040 ------- 0 0.0 5.0 5 10
- 0.275253 1 7 tcp 1040 ------- 0 0.0 5.0 5 10
r 0.27778 7 5 tcp 1040 ------- 0 0.0 5.0 4 9
h 0.27778 5 7 ack 40 ------- 0 5.0 0.0 4 17
+ 0.27946 5 7 ack 40 ------- 0 5.0 0.0 3 16
- 0.27946 5 7 ack 40 ------- 0 5.0 0.0 3 16
r 0.281013 7 2 ack 40 ------- 0 6.0 2.0 1 14
0.28101  2  0  6  0  cwnd_ 3.000 
h 0.281013 2 7 tcp 1040 ------- 0 2.0 6.0 3 18
h 0.281013 2 7 tcp 1040 ------- 0 2.0 6.0 4 19
r 0.281866 7 2 ack 40 ------- 0 6.0 2.0 2 15
0.28187  2  0  6  0  cwnd_ 4.000 
h 0.281866 2 7 tcp 1040 ------- 0 2.0 6.0 5 20
h 0.281866 2 7 tcp 1040 ------- 0 2.0 6.0 6 21
+ 0.283573 1 7 tcp 1040 ------- 0 0.0 5.0 6 11
- 0.283573 1 7 tcp 1040 ------- 0 0.0 5.0 6 11
r 0.2861 7 5 tcp 1040 ------- 0 0.0 5.0 5 10
h 0.2861 5 7 ack 40 ------- 0 5.0 0.0 5 22
+ 0.28778 5 7 ack 40 ------- 0 5.0 0.0 4 17
- 0.28778 5 7 ack 40 ------- 0 5.0 0.0 4 17
r 0.289515 7 1 ack 40 ------- 0 5.0 0.0 3 16
+ 0.289515 1 0 ack 40 ------- 0 5.0 0.0 3 16
- 0.289515 1 0 ack 40 ------- 0 5.0 0.0 3 16
+ 0.291013 2 7 tcp 1040 ------- 0 2.0 6.0 3 18
- 0.291013 2 7 tcp 1040 ------- 0 2.0 6.0 3 18
+ 0.291013 2 7 tcp 1040 ------- 0 2.0 6.0 4 19
+ 0.291866 2 7 tcp 1040 ------- 0 2.0 6.0 5 20
+ 0.291866 2 7 tcp 1040 ------- 0 2.0 6.0 6 21
- 0.291866 2 7 tcp 1040 ------- 0 2.0 6.0 4 19
- 0.292718 2 7 tcp 1040 ------- 0 2.0 6.0 5 20
- 0.293571 2 7 tcp 1040 ------- 0 2.0 6.0 6 21
r 0.29442 7 5 tcp 1040 ------- 0 0.0 5.0 6 11
h 0.29442 5 7 ack 40 ------- 0 5.0 0.0 6 23
+ 0.2961 5 7 ack 40 ------- 0 5.0 0.0 5 22
- 0.2961 5 7 ack 40 ------- 0 5.0 0.0 5 22
r 0.297835 7 1 ack 40 ------- 0 5.0 0.0 4 17
+ 0.297835 1 0 ack 40 ------- 0 5.0 0.0 4 17
- 0.297835 1 0 ack 40 ------- 0 5.0 0.0 4 17
r 0.299835 1 0 ack 40 ------- 0 5.0 0.0 3 16
0.29984  0  0  5  0  cwnd_ 5.000 
+ 0.299835 0 1 tcp 1040 ------- 0 0.0 5.0 7 24
- 0.299835 0 1 tcp 1040 ------- 0 0.0 5.0 7 24
+ 0.299835 0 1 tcp 1040 ------- 0 0.0 5.0 8 25
r 0.30186 7 6 tcp 1040 ------- 0 2.0 6.0 3 18
h 0.30186 6 7 ack 40 ------- 0 6.0 2.0 3 26
r 0.302713 7 6 tcp 1040 ------- 0 2.0 6.0 4 19
h 0.302713 6 7 ack 40 ------- 0 6.0 2.0 4 27
r 0.303566 7 6 tcp 1040 ------- 0 2.0 6.0 5 20
h 0.303566 6 7 ack 40 ------- 0 6.0 2.0 5 28
r 0.304418 7 6 tcp 1040 ------- 0 2.0 6.0 6 21
h 0.304418 6 7 ack 40 ------- 0 6.0 2.0 6 29
+ 0.30442 5 7 ack 40 ------- 0 5.0 0.0 6 23
- 0.30442 5 7 ack 40 ------- 0 5.0 0.0 6 23
r 0.306155 7 1 ack 40 ------- 0 5.0 0.0 5 22
+ 0.306155 1 0 ack 40 ------- 0 5.0 0.0 5 22
- 0.306155 1 0 ack 40 ------- 0 5.0 0.0 5 22
r 0.308155 1 0 ack 40 ------- 0 5.0 0.0 4 17
0.30816  0  0  5  0  cwnd_ 6.000 
+ 0.308155 0 1 tcp 1040 ------- 0 0.0 5.0 9 30
+ 0.308155 0 1 tcp 1040 ------- 0 0.0 5.0 10 31
- 0.308155 0 1 tcp 1040 ------- 0 0.0 5.0 8 25
+ 0.31186 6 7 ack 40 ------- 0 6.0 2.0 3 26
- 0.31186 6 7 ack 40 ------- 0 6.0 2.0 3 26
+ 0.312713 6 7 ack 40 ------- 0 6.0 2.0 4 27
- 0.312713 6 7 ack 40 ------- 0 6.0 2.0 4 27
+ 0.313566 6 7 ack 40 ------- 0 6.0 2.0 5 28
- 0.313566 6 7 ack 40 ------- 0 6.0 2.0 5 28
+ 0.314418 6 7 ack 40 ------- 0 6.0 2.0 6 29
- 0.314418 6 7 ack 40 ------- 0 6.0 2.0 6 29
r 0.314475 7 1 ack 40 ------- 0 5.0 0.0 6 23
+ 0.314475 1 0 ack 40 ------- 0 5.0 0.0 6 23
- 0.314475 1 0 ack 40 ------- 0 5.0 0.0 6 23
r 0.316475 1 0 ack 40 ------- 0 5.0 0.0 5 22
0.31648  0  0  5  0  cwnd_ 7.000 
+ 0.316475 0 1 tcp 1040 ------- 0 0.0 5.0 11 32
+ 0.316475 0 1 tcp 1040 ------- 0 0.0 5.0 12 33
- 0.316475 0 1 tcp 1040 ------- 0 0.0 5.0 9 30
r 0.318155 0 1 tcp 1040 ------- 0 0.0 5.0 7 24
h 0.318155 1 7 tcp 1040 ------- 0 0.0 5.0 7 24
r 0.321915 7 2 ack 40 ------- 0 6.0 2.0 3 26
0.32192  2  0  6  0  cwnd_ 5.000 
h 0.321915 2 7 tcp 1040 ------- 0 2.0 6.0 7 34
h 0.321915 2 7 tcp 1040 ------- 0 2.0 6.0 8 35
r 0.322768 7 2 ack 40 ------- 0 6.0 2.0 4 27
0.32277  2  0  6  0  cwnd_ 6.000 
h 0.322768 2 7 tcp 1040 ------- 0 2.0 6.0 9 36
h 0.322768 2 7 tcp 1040 ------- 0 2.0 6.0 10 37
r 0.323621 7 2 ack 40 ------- 0 6.0 2.0 5 28
0.32362  2  0  6  0  cwnd_ 7.000 
h 0.323621 2 7 tcp 1040 ------- 0 2.0 6.0 11 38
h 0.323621 2 7 tcp 1040 ------- 0 2.0 6.0 12 39
r 0.324474 7 2 ack 40 ------- 0 6.0 2.0 6 29
0.32447  2  0  6  0  cwnd_ 8.000 
h 0.324474 2 7 tcp 1040 ------- 0 2.0 6.0 13 40
h 0.324474 2 7 tcp 1040 ------- 0 2.0 6.0 14 41
- 0.324795 0 1 tcp 1040 ------- 0 0.0 5.0 10 31
r 0.324795 1 0 ack 40 ------- 0 5.0 0.0 6 23
0.32480  0  0  5  0  cwnd_ 8.000 
+ 0.324795 0 1 tcp 1040 ------- 0 0.0 5.0 13 42
+ 0.324795 0 1 tcp 1040 ------- 0 0.0 5.0 14 43
r 0.326475 0 1 tcp 1040 ------- 0 0.0 5.0 8 25
h 0.326475 1 7 tcp 1040 ------- 0 0.0 5.0 8 25
+ 0.328155 1 7 tcp 1040 ------- 0 0.0 5.0 7 24
- 0.328155 1 7 tcp 1040 ------- 0 0.0 5.0 7 24
+ 0.331915 2 7 tcp 1040 ------- 0 2.0 6.0 7 34
- 0.331915 2 7 tcp 1040 ------- 0 2.0 6.0 7 34
+ 0.331915 2 7 tcp 1040 ------- 0 2.0 6.0 8 35
+ 0.332768 2 7 tcp 1040 ------- 0 2.0 6.0 9 36
+ 0.332768 2 7 tcp 1040 ------- 0 2.0 6.0 10 37
- 0.332768 2 7 tcp 1040 ------- 0 2.0 6.0 8 35
- 0.333115 0 1 tcp 1040 ------- 0 0.0 5.0 11 32
+ 0.333621 2 7 tcp 1040 ------- 0 2.0 6.0 11 38
+ 0.333621 2 7 tcp 1040 ------- 0 2.0 6.0 12 39
- 0.333621 2 7 tcp 1040 ------- 0 2.0 6.0 9 36
+ 0.334474 2 7 tcp 1040 ------- 0 2.0 6.0 13 40
+ 0.334474 2 7 tcp 1040 ------- 0 2.0 6.0 14 41
- 0.334474 2 7 tcp 1040 ------- 0 2.0 6.0 10 37
r 0.334795 0 1 tcp 1040 ------- 0 0.0 5.0 9 30
h 0.334795 1 7 tcp 1040 ------- 0 0.0 5.0 9 30
- 0.335326 2 7 tcp 1040 ------- 0 2.0 6.0 11 38
- 0.336179 2 7 tcp 1040 ------- 0 2.0 6.0 12 39
+ 0.336475 1 7 tcp 1040 ------- 0 0.0 5.0 8 25
- 0.336475 1 7 tcp 1040 ------- 0 0.0 5.0 8 25
- 0.337032 2 7 tcp 1040 ------- 0 2.0 6.0 13 40
- 0.338246 2 7 tcp 1040 ------- 0 2.0 6.0 14 41
r 0.339002 7 5 tcp 1040 ------- 0 0.0 5.0 7 24
h 0.339002 5 7 ack 40 ------- 0 5.0 0.0 7 44
- 0.341435 0 1 tcp 1040 ------- 0 0.0 5.0 12 33
r 0.342762 7 6 tcp 1040 ------- 0 2.0 6.0 7 34
h 0.342762 6 7 ack 40 ------- 0 6.0 2.0 7 45
r 0.343115 0 1 tcp 1040 ------- 0 0.0 5.0 10 31
h 0.343115 1 7 tcp 1040 ------- 0 0.0 5.0 10 31
r 0.343615 7 6 tcp 1040 ------- 0 2.0 6.0 8 35
h 0.343615 6 7 ack 40 ------- 0 6.0 2.0 8 46
r 0.344468 7 6 tcp 1040 ------- 0 2.0 6.0 9 36
h 0.344468 6 7 ack 40 ------- 0 6.0 2.0 9 47
+ 0.344795 1 7 tcp 1040 ------- 0 0.0 5.0 9 30
- 0.344795 1 7 tcp 1040 ------- 0 0.0 5.0 9 30
r 0.345321 7 6 tcp 1040 ------- 0 2.0 6.0 10 37
h 0.345321 6 7 ack 40 ------- 0 6.0 2.0 10 48
r 0.346174 7 6 tcp 1040 ------- 0 2.0 6.0 11 38
h 0.346174 6 7 ack 40 ------- 0 6.0 2.0 11 49
r 0.347026 7 6 tcp 1040 ------- 0 2.0 6.0 12 39
h 0.347026 6 7 ack 40 ------- 0 6.0 2.0 12 50
r 0.348241 7 6 tcp 1040 ------- 0 2.0 6.0 13 40
h 0.348241 6 7 ack 40 ------- 0 6.0 2.0 13 51
+ 0.349002 5 7 ack 40 ------- 0 5.0 0.0 7 44
- 0.349002 5 7 ack 40 ------- 0 5.0 0.0 7 44
r 0.349166 7 6 tcp 1040 ------- 0 2.0 6.0 14 41
h 0.349166 6 7 ack 40 ------- 0 6.0 2.0 14 52
- 0.349755 0 1 tcp 1040 ------- 0 0.0 5.0 13 42
r 0.350022 7 5 tcp 1040 ------- 0 0.0 5.0 8 25
h 0.350022 5 7 ack 40 ------- 0 5.0 0.0 8 53
r 0.351435 0 1 tcp 1040 ------- 0 0.0 5.0 11 32
h 0.351435 1 7 tcp 1040 ------- 0 0.0 5.0 11 32
+ 0.352762 6 7 ack 40 ------- 0 6.0 2.0 7 45
- 0.352762 6 7 ack 40 ------- 0 6.0 2.0 7 45
+ 0.353115 1 7 tcp 1040 ------- 0 0.0 5.0 10 31
- 0.353115 1 7 tcp 1040 ------- 0 0.0 5.0 10 31
+ 0.353615 6 7 ack 40 ------- 0 6.0 2.0 8 46
- 0.353615 6 7 ack 40 ------- 0 6.0 2.0 8 46
+ 0.354468 6 7 ack 40 ------- 0 6.0 2.0 9 47
- 0.354468 6 7 ack 40 ------- 0 6.0 2.0 9 47
+ 0.355321 6 7 ack 40 ------- 0 6.0 2.0 10 48
- 0.355321 6 7 ack 40 ------- 0 6.0 2.0 10 48
r 0.355642 7 5 tcp 1040 ------- 0 0.0 5.0 9 30
h 0.355642 5 7 ack 40 ------- 0 5.0 0.0 9 54
+ 0.356174 6 7 ack 40 ------- 0 6.0 2.0 11 49
- 0.356174 6 7 ack 40 ------- 0 6.0 2.0 11 49
+ 0.357026 6 7 ack 40 ------- 0 6.0 2.0 12 50
- 0.357026 6 7 ack 40 ------- 0 6.0 2.0 12 50
- 0.358075 0 1 tcp 1040 ------- 0 0.0 5.0 14 43
+ 0.358241 6 7 ack 40 ------- 0 6.0 2.0 13 51
- 0.358241 6 7 ack 40 ------- 0 6.0 2.0 13 51
r 0.359058 7 1 ack 40 ------- 0 5.0 0.0 7 44
+ 0.359058 1 0 ack 40 ------- 0 5.0 0.0 7 44
- 0.359058 1 0 ack 40 ------- 0 5.0 0.0 7 44
+ 0.359166 6 7 ack 40 ------- 0 6.0 2.0 14 52
- 0.359166 6 7 ack 40 ------- 0 6.0 2.0 14 52
r 0.359755 0 1 tcp 1040 ------- 0 0.0 5.0 12 33
h 0.359755 1 7 tcp 1040 ------- 0 0.0 5.0 12 33
+ 0.360022 5 7 ack 40 ------- 0 5.0 0.0 8 53
- 0.360022 5 7 ack 40 ------- 0 5.0 0.0 8 53
+ 0.361435 1 7 tcp 1040 ------- 0 0.0 5.0 11 32
- 0.361435 1 7 tcp 1040 ------- 0 0.0 5.0 11 32
r 0.362818 7 2 ack 40 ------- 0 6.0 2.0 7 45
0.36282  2  0  6  0  cwnd_ 9.000 
h 0.362818 2 7 tcp 1040 ------- 0 2.0 6.0 15 55
h 0.362818 2 7 tcp 1040 ------- 0 2.0 6.0 16 56
r 0.363962 7 5 tcp 1040 ------- 0 0.0 5.0 10 31
h 0.363962 5 7 ack 40 ------- 0 5.0 0.0 10 57
r 0.364027 7 2 ack 40 ------- 0 6.0 2.0 8 46
0.36403  2  0  6  0  cwnd_ 10.000
h 0.364027 2 7 tcp 1040 ------- 0 2.0 6.0 17 58
h 0.364027 2 7 tcp 1040 ------- 0 2.0 6.0 18 59
r 0.364523 7 2 ack 40 ------- 0 6.0 2.0 9 47
0.36452  2  0  6  0  cwnd_ 11.000
h 0.364523 2 7 tcp 1040 ------- 0 2.0 6.0 19 60
h 0.364523 2 7 tcp 1040 ------- 0 2.0 6.0 20 61
r 0.365376 7 2 ack 40 ------- 0 6.0 2.0 10 48
0.36538  2  0  6  0  cwnd_ 12.000
h 0.365376 2 7 tcp 1040 ------- 0 2.0 6.0 21 62
h 0.365376 2 7 tcp 1040 ------- 0 2.0 6.0 22 63
+ 0.365642 5 7 ack 40 ------- 0 5.0 0.0 9 54
- 0.365642 5 7 ack 40 ------- 0 5.0 0.0 9 54
r 0.366229 7 2 ack 40 ------- 0 6.0 2.0 11 49
0.36623  2  0  6  0  cwnd_ 13.000
h 0.366229 2 7 tcp 1040 ------- 0 2.0 6.0 23 64
h 0.366229 2 7 tcp 1040 ------- 0 2.0 6.0 24 65
r 0.367082 7 2 ack 40 ------- 0 6.0 2.0 12 50
0.36708  2  0  6  0  cwnd_ 14.000
h 0.367082 2 7 tcp 1040 ------- 0 2.0 6.0 25 66
h 0.367082 2 7 tcp 1040 ------- 0 2.0 6.0 26 67
r 0.368075 0 1 tcp 1040 ------- 0 0.0 5.0 13 42
h 0.368075 1 7 tcp 1040 ------- 0 0.0 5.0 13 42
r 0.368296 7 2 ack 40 ------- 0 6.0 2.0 13 51
0.36830  2  0  6  0  cwnd_ 15.000
h 0.368296 2 7 tcp 1040 ------- 0 2.0 6.0 27 68
h 0.368296 2 7 tcp 1040 ------- 0 2.0 6.0 28 69
r 0.369221 7 2 ack 40 ------- 0 6.0 2.0 14 52
0.36922  2  0  6  0  cwnd_ 16.000
h 0.369221 2 7 tcp 1040 ------- 0 2.0 6.0 29 70
h 0.369221 2 7 tcp 1040 ------- 0 2.0 6.0 30 71
r 0.369378 1 0 ack 40 ------- 0 5.0 0.0 7 44
0.36938  0  0  5  0  cwnd_ 9.000 
+ 0.369378 0 1 tcp 1040 ------- 0 0.0 5.0 15 72
- 0.369378 0 1 tcp 1040 ------- 0 0.0 5.0 15 72
+ 0.369378 0 1 tcp 1040 ------- 0 0.0 5.0 16 73
+ 0.369755 1 7 tcp 1040 ------- 0 0.0 5.0 12 33
- 0.369755 1 7 tcp 1040 ------- 0 0.0 5.0 12 33
r 0.370078 7 1 ack 40 ------- 0 5.0 0.0 8 53
+ 0.370078 1 0 ack 40 ------- 0 5.0 0.0 8 53
- 0.370078 1 0 ack 40 ------- 0 5.0 0.0 8 53
r 0.372282 7 5 tcp 1040 ------- 0 0.0 5.0 11 32
h 0.372282 5 7 ack 40 ------- 0 5.0 0.0 11 74
+ 0.372818 2 7 tcp 1040 ------- 0 2.0 6.0 15 55
- 0.372818 2 7 tcp 1040 ------- 0 2.0 6.0 15 55
+ 0.372818 2 7 tcp 1040 ------- 0 2.0 6.0 16 56
- 0.37367 2 7 tcp 1040 ------- 0 2.0 6.0 16 56
+ 0.373962 5 7 ack 40 ------- 0 5.0 0.0 10 57
- 0.373962 5 7 ack 40 ------- 0 5.0 0.0 10 57
+ 0.374027 2 7 tcp 1040 ------- 0 2.0 6.0 17 58
+ 0.374027 2 7 tcp 1040 ------- 0 2.0 6.0 18 59
+ 0.374523 2 7 tcp 1040 ------- 0 2.0 6.0 19 60
+ 0.374523 2 7 tcp 1040 ------- 0 2.0 6.0 20 61
- 0.374523 2 7 tcp 1040 ------- 0 2.0 6.0 17 58
+ 0.375376 2 7 tcp 1040 ------- 0 2.0 6.0 21 62
+ 0.375376 2 7 tcp 1040 ------- 0 2.0 6.0 22 63
- 0.375458 2 7 tcp 1040 ------- 0 2.0 6.0 18 59
r 0.375698 7 1 ack 40 ------- 0 5.0 0.0 9 54
+ 0.375698 1 0 ack 40 ------- 0 5.0 0.0 9 54
- 0.375698 1 0 ack 40 ------- 0 5.0 0.0 9 54
+ 0.376229 2 7 tcp 1040 ------- 0 2.0 6.0 23 64
+ 0.376229 2 7 tcp 1040 ------- 0 2.0 6.0 24 65
- 0.37631 2 7 tcp 1040 ------- 0 2.0 6.0 19 60
r 0.376395 0 1 tcp 1040 ------- 0 0.0 5.0 14 43
h 0.376395 1 7 tcp 1040 ------- 0 0.0 5.0 14 43
+ 0.377082 2 7 tcp 1040 ------- 0 2.0 6.0 25 66
+ 0.377082 2 7 tcp 1040 ------- 0 2.0 6.0 26 67
- 0.377163 2 7 tcp 1040 ------- 0 2.0 6.0 20 61
- 0.377698 0 1 tcp 1040 ------- 0 0.0 5.0 16 73
- 0.378016 2 7 tcp 1040 ------- 0 2.0 6.0 21 62
+ 0.378075 1 7 tcp 1040 ------- 0 0.0 5.0 13 42
- 0.378075 1 7 tcp 1040 ------- 0 0.0 5.0 13 42
+ 0.378296 2 7 tcp 1040 ------- 0 2.0 6.0 27 68
+ 0.378296 2 7 tcp 1040 ------- 0 2.0 6.0 28 69
- 0.378869 2 7 tcp 1040 ------- 0 2.0 6.0 22 63
+ 0.379221 2 7 tcp 1040 ------- 0 2.0 6.0 29 70
+ 0.379221 2 7 tcp 1040 ------- 0 2.0 6.0 30 71
r 0.380398 1 0 ack 40 ------- 0 5.0 0.0 8 53
0.38040  0  0  5  0  cwnd_ 10.000
+ 0.380398 0 1 tcp 1040 ------- 0 0.0 5.0 17 75
+ 0.380398 0 1 tcp 1040 ------- 0 0.0 5.0 18 76
r 0.380602 7 5 tcp 1040 ------- 0 0.0 5.0 12 33
h 0.380602 5 7 ack 40 ------- 0 5.0 0.0 12 77
- 0.380885 2 7 tcp 1040 ------- 0 2.0 6.0 23 64
- 0.381738 2 7 tcp 1040 ------- 0 2.0 6.0 24 65
+ 0.382282 5 7 ack 40 ------- 0 5.0 0.0 11 74
- 0.382282 5 7 ack 40 ------- 0 5.0 0.0 11 74
- 0.38259 2 7 tcp 1040 ------- 0 2.0 6.0 25 66
r 0.383665 7 6 tcp 1040 ------- 0 2.0 6.0 15 55
h 0.383665 6 7 ack 40 ------- 0 6.0 2.0 15 78
- 0.383699 2 7 tcp 1040 ------- 0 2.0 6.0 26 67
r 0.384518 7 6 tcp 1040 ------- 0 2.0 6.0 16 56
h 0.384518 6 7 ack 40 ------- 0 6.0 2.0 16 79
- 0.384552 2 7 tcp 1040 ------- 0 2.0 6.0 27 68
r 0.384595 7 1 ack 40 ------- 0 5.0 0.0 10 57
+ 0.384595 1 0 ack 40 ------- 0 5.0 0.0 10 57
- 0.384595 1 0 ack 40 ------- 0 5.0 0.0 10 57
- 0.385405 2 7 tcp 1040 ------- 0 2.0 6.0 28 69
r 0.385452 7 6 tcp 1040 ------- 0 2.0 6.0 17 58
h 0.385452 6 7 ack 40 ------- 0 6.0 2.0 17 80
r 0.386018 1 0 ack 40 ------- 0 5.0 0.0 9 54
0.38602  0  0  5  0  cwnd_ 11.000
+ 0.386018 0 1 tcp 1040 ------- 0 0.0 5.0 19 81
+ 0.386018 0 1 tcp 1040 ------- 0 0.0 5.0 20 82
- 0.386018 0 1 tcp 1040 ------- 0 0.0 5.0 17 75
- 0.386258 2 7 tcp 1040 ------- 0 2.0 6.0 29 70
r 0.386305 7 6 tcp 1040 ------- 0 2.0 6.0 18 59
h 0.386305 6 7 ack 40 ------- 0 6.0 2.0 18 83
+ 0.386395 1 7 tcp 1040 ------- 0 0.0 5.0 14 43
- 0.386395 1 7 tcp 1040 ------- 0 0.0 5.0 14 43
- 0.38711 2 7 tcp 1040 ------- 0 2.0 6.0 30 71
r 0.387158 7 6 tcp 1040 ------- 0 2.0 6.0 19 60
h 0.387158 6 7 ack 40 ------- 0 6.0 2.0 19 84
r 0.387698 0 1 tcp 1040 ------- 0 0.0 5.0 15 72
h 0.387698 1 7 tcp 1040 ------- 0 0.0 5.0 15 72
r 0.38801 7 6 tcp 1040 ------- 0 2.0 6.0 20 61
h 0.38801 6 7 ack 40 ------- 0 6.0 2.0 20 85
r 0.388863 7 6 tcp 1040 ------- 0 2.0 6.0 21 62
h 0.388863 6 7 ack 40 ------- 0 6.0 2.0 21 86
r 0.390022 7 5 tcp 1040 ------- 0 0.0 5.0 13 42
h 0.390022 5 7 ack 40 ------- 0 5.0 0.0 13 87
+ 0.390602 5 7 ack 40 ------- 0 5.0 0.0 12 77
- 0.390602 5 7 ack 40 ------- 0 5.0 0.0 12 77
r 0.390879 7 6 tcp 1040 ------- 0 2.0 6.0 22 63
h 0.390879 6 7 ack 40 ------- 0 6.0 2.0 22 88
r 0.391732 7 6 tcp 1040 ------- 0 2.0 6.0 23 64
h 0.391732 6 7 ack 40 ------- 0 6.0 2.0 23 89
r 0.392585 7 6 tcp 1040 ------- 0 2.0 6.0 24 65
h 0.392585 6 7 ack 40 ------- 0 6.0 2.0 24 90
r 0.392837 7 1 ack 40 ------- 0 5.0 0.0 11 74
+ 0.392837 1 0 ack 40 ------- 0 5.0 0.0 11 74
- 0.392837 1 0 ack 40 ------- 0 5.0 0.0 11 74
+ 0.393665 6 7 ack 40 ------- 0 6.0 2.0 15 78
- 0.393665 6 7 ack 40 ------- 0 6.0 2.0 15 78
r 0.393694 7 6 tcp 1040 ------- 0 2.0 6.0 25 66
h 0.393694 6 7 ack 40 ------- 0 6.0 2.0 25 91
- 0.394338 0 1 tcp 1040 ------- 0 0.0 5.0 18 76
+ 0.394518 6 7 ack 40 ------- 0 6.0 2.0 16 79
- 0.394518 6 7 ack 40 ------- 0 6.0 2.0 16 79
r 0.394546 7 6 tcp 1040 ------- 0 2.0 6.0 26 67
h 0.394546 6 7 ack 40 ------- 0 6.0 2.0 26 92
r 0.394915 1 0 ack 40 ------- 0 5.0 0.0 10 57
0.39492  0  0  5  0  cwnd_ 12.000
+ 0.394915 0 1 tcp 1040 ------- 0 0.0 5.0 21 93
+ 0.394915 0 1 tcp 1040 ------- 0 0.0 5.0 22 94
r 0.395399 7 6 tcp 1040 ------- 0 2.0 6.0 27 68
h 0.395399 6 7 ack 40 ------- 0 6.0 2.0 27 95
+ 0.395452 6 7 ack 40 ------- 0 6.0 2.0 17 80
- 0.395452 6 7 ack 40 ------- 0 6.0 2.0 17 80
r 0.396018 0 1 tcp 1040 ------- 0 0.0 5.0 16 73
h 0.396018 1 7 tcp 1040 ------- 0 0.0 5.0 16 73
r 0.396252 7 6 tcp 1040 ------- 0 2.0 6.0 28 69
h 0.396252 6 7 ack 40 ------- 0 6.0 2.0 28 96
+ 0.396305 6 7 ack 40 ------- 0 6.0 2.0 18 83
- 0.396305 6 7 ack 40 ------- 0 6.0 2.0 18 83
r 0.397105 7 6 tcp 1040 ------- 0 2.0 6.0 29 70
h 0.397105 6 7 ack 40 ------- 0 6.0 2.0 29 97
+ 0.397158 6 7 ack 40 ------- 0 6.0 2.0 19 84
- 0.397158 6 7 ack 40 ------- 0 6.0 2.0 19 84
+ 0.397698 1 7 tcp 1040 ------- 0 0.0 5.0 15 72
- 0.397698 1 7 tcp 1040 ------- 0 0.0 5.0 15 72
r 0.397978 7 6 tcp 1040 ------- 0 2.0 6.0 30 71
h 0.397978 6 7 ack 40 ------- 0 6.0 2.0 30 98
+ 0.39801 6 7 ack 40 ------- 0 6.0 2.0 20 85
- 0.39801 6 7 ack 40 ------- 0 6.0 2.0 20 85
r 0.398835 7 5 tcp 1040 ------- 0 0.0 5.0 14 43
h 0.398835 5 7 ack 40 ------- 0 5.0 0.0 14 99
+ 0.398863 6 7 ack 40 ------- 0 6.0 2.0 21 86
- 0.398863 6 7 ack 40 ------- 0 6.0 2.0 21 86
+ 0.400022 5 7 ack 40 ------- 0 5.0 0.0 13 87
- 0.400022 5 7 ack 40 ------- 0 5.0 0.0 13 87
r 0.400658 7 1 ack 40 ------- 0 5.0 0.0 12 77
+ 0.400658 1 0 ack 40 ------- 0 5.0 0.0 12 77
- 0.400658 1 0 ack 40 ------- 0 5.0 0.0 12 77
+ 0.400879 6 7 ack 40 ------- 0 6.0 2.0 22 88
- 0.400879 6 7 ack 40 ------- 0 6.0 2.0 22 88
+ 0.401732 6 7 ack 40 ------- 0 6.0 2.0 23 89
- 0.401732 6 7 ack 40 ------- 0 6.0 2.0 23 89
+ 0.402585 6 7 ack 40 ------- 0 6.0 2.0 24 90
- 0.402585 6 7 ack 40 ------- 0 6.0 2.0 24 90
- 0.402658 0 1 tcp 1040 ------- 0 0.0 5.0 19 81
r 0.403157 1 0 ack 40 ------- 0 5.0 0.0 11 74
0.40316  0  0  5  0  cwnd_ 13.000
+ 0.403157 0 1 tcp 1040 ------- 0 0.0 5.0 23 100
+ 0.403157 0 1 tcp 1040 ------- 0 0.0 5.0 24 101
+ 0.403694 6 7 ack 40 ------- 0 6.0 2.0 25 91
- 0.403694 6 7 ack 40 ------- 0 6.0 2.0 25 91
r 0.40372 7 2 ack 40 ------- 0 6.0 2.0 15 78
0.40372  2  0  6  0  cwnd_ 17.000
h 0.40372 2 7 tcp 1040 ------- 0 2.0 6.0 31 102
h 0.40372 2 7 tcp 1040 ------- 0 2.0 6.0 32 103
r 0.404338 0 1 tcp 1040 ------- 0 0.0 5.0 17 75
h 0.404338 1 7 tcp 1040 ------- 0 0.0 5.0 17 75
+ 0.404546 6 7 ack 40 ------- 0 6.0 2.0 26 92
- 0.404546 6 7 ack 40 ------- 0 6.0 2.0 26 92
r 0.404573 7 2 ack 40 ------- 0 6.0 2.0 16 79
0.40457  2  0  6  0  cwnd_ 18.000
h 0.404573 2 7 tcp 1040 ------- 0 2.0 6.0 33 104
h 0.404573 2 7 tcp 1040 ------- 0 2.0 6.0 34 105
+ 0.405399 6 7 ack 40 ------- 0 6.0 2.0 27 95
- 0.405399 6 7 ack 40 ------- 0 6.0 2.0 27 95
r 0.405507 7 2 ack 40 ------- 0 6.0 2.0 17 80
0.40551  2  0  6  0  cwnd_ 19.000
h 0.405507 2 7 tcp 1040 ------- 0 2.0 6.0 35 106
h 0.405507 2 7 tcp 1040 ------- 0 2.0 6.0 36 107
+ 0.406018 1 7 tcp 1040 ------- 0 0.0 5.0 16 73
- 0.406018 1 7 tcp 1040 ------- 0 0.0 5.0 16 73
+ 0.406252 6 7 ack 40 ------- 0 6.0 2.0 28 96
- 0.406252 6 7 ack 40 ------- 0 6.0 2.0 28 96
r 0.40636 7 2 ack 40 ------- 0 6.0 2.0 18 83
0.40636  2  0  6  0  cwnd_ 20.000
h 0.40636 2 7 tcp 1040 ------- 0 2.0 6.0 37 108
h 0.40636 2 7 tcp 1040 ------- 0 2.0 6.0 38 109
+ 0.407105 6 7 ack 40 ------- 0 6.0 2.0 29 97
- 0.407105 6 7 ack 40 ------- 0 6.0 2.0 29 97
r 0.407213 7 2 ack 40 ------- 0 6.0 2.0 19 84
0.40721  2  0  6  0  cwnd_ 20.050
h 0.407213 2 7 tcp 1040 ------- 0 2.0 6.0 39 110
+ 0.407978 6 7 ack 40 ------- 0 6.0 2.0 30 98
- 0.407978 6 7 ack 40 ------- 0 6.0 2.0 30 98
r 0.408545 7 5 tcp 1040 ------- 0 0.0 5.0 15 72
h 0.408545 5 7 ack 40 ------- 0 5.0 0.0 15 111
r 0.40861 7 2 ack 40 ------- 0 6.0 2.0 20 85
0.40861  2  0  6  0  cwnd_ 20.100
h 0.40861 2 7 tcp 1040 ------- 0 2.0 6.0 40 112
+ 0.408835 5 7 ack 40 ------- 0 5.0 0.0 14 99
- 0.408835 5 7 ack 40 ------- 0 5.0 0.0 14 99
r 0.408918 7 2 ack 40 ------- 0 6.0 2.0 21 86
0.40892  2  0  6  0  cwnd_ 20.150
h 0.408918 2 7 tcp 1040 ------- 0 2.0 6.0 41 113
r 0.410078 7 1 ack 40 ------- 0 5.0 0.0 13 87
+ 0.410078 1 0 ack 40 ------- 0 5.0 0.0 13 87
- 0.410078 1 0 ack 40 ------- 0 5.0 0.0 13 87
r 0.410934 7 2 ack 40 ------- 0 6.0 2.0 22 88
0.41093  2  0  6  0  cwnd_ 20.199
h 0.410934 2 7 tcp 1040 ------- 0 2.0 6.0 42 114
r 0.410978 1 0 ack 40 ------- 0 5.0 0.0 12 77
0.41098  0  0  5  0  cwnd_ 14.000
+ 0.410978 0 1 tcp 1040 ------- 0 0.0 5.0 25 115
+ 0.410978 0 1 tcp 1040 ------- 0 0.0 5.0 26 116
- 0.410978 0 1 tcp 1040 ------- 0 0.0 5.0 20 82
r 0.411787 7 2 ack 40 ------- 0 6.0 2.0 23 89
0.41179  2  0  6  0  cwnd_ 20.249
h 0.411787 2 7 tcp 1040 ------- 0 2.0 6.0 43 117
r 0.41264 7 2 ack 40 ------- 0 6.0 2.0 24 90
0.41264  2  0  6  0  cwnd_ 20.298
h 0.41264 2 7 tcp 1040 ------- 0 2.0 6.0 44 118
r 0.412658 0 1 tcp 1040 ------- 0 0.0 5.0 18 76
h 0.412658 1 7 tcp 1040 ------- 0 0.0 5.0 18 76
+ 0.41372 2 7 tcp 1040 ------- 0 2.0 6.0 31 102
- 0.41372 2 7 tcp 1040 ------- 0 2.0 6.0 31 102
+ 0.41372 2 7 tcp 1040 ------- 0 2.0 6.0 32 103
r 0.413749 7 2 ack 40 ------- 0 6.0 2.0 25 91
0.41375  2  0  6  0  cwnd_ 20.347
h 0.413749 2 7 tcp 1040 ------- 0 2.0 6.0 45 119
+ 0.414338 1 7 tcp 1040 ------- 0 0.0 5.0 17 75
- 0.414338 1 7 tcp 1040 ------- 0 0.0 5.0 17 75
+ 0.414573 2 7 tcp 1040 ------- 0 2.0 6.0 33 104
+ 0.414573 2 7 tcp 1040 ------- 0 2.0 6.0 34 105
- 0.414573 2 7 tcp 1040 ------- 0 2.0 6.0 32 103
r 0.414602 7 2 ack 40 ------- 0 6.0 2.0 26 92
0.41460  2  0  6  0  cwnd_ 20.397
h 0.414602 2 7 tcp 1040 ------- 0 2.0 6.0 46 120
r 0.415454 7 2 ack 40 ------- 0 6.0 2.0 27 95
0.41545  2  0  6  0  cwnd_ 20.446
h 0.415454 2 7 tcp 1040 ------- 0 2.0 6.0 47 121
+ 0.415507 2 7 tcp 1040 ------- 0 2.0 6.0 35 106
+ 0.415507 2 7 tcp 1040 ------- 0 2.0 6.0 36 107
- 0.415531 2 7 tcp 1040 ------- 0 2.0 6.0 33 104
+ 0.41636 2 7 tcp 1040 ------- 0 2.0 6.0 37 108
+ 0.41636 2 7 tcp 1040 ------- 0 2.0 6.0 38 109
- 0.416456 2 7 tcp 1040 ------- 0 2.0 6.0 34 105
r 0.416865 7 5 tcp 1040 ------- 0 0.0 5.0 16 73
h 0.416865 5 7 ack 40 ------- 0 5.0 0.0 16 122
r 0.41693 7 2 ack 40 ------- 0 6.0 2.0 28 96
0.41693  2  0  6  0  cwnd_ 20.494
h 0.41693 2 7 tcp 1040 ------- 0 2.0 6.0 48 123
r 0.41716 7 2 ack 40 ------- 0 6.0 2.0 29 97
0.41716  2  0  6  0  cwnd_ 20.543
h 0.41716 2 7 tcp 1040 ------- 0 2.0 6.0 49 124
+ 0.417213 2 7 tcp 1040 ------- 0 2.0 6.0 39 110
- 0.417381 2 7 tcp 1040 ------- 0 2.0 6.0 35 106
r 0.418034 7 2 ack 40 ------- 0 6.0 2.0 30 98
0.41803  2  0  6  0  cwnd_ 20.592
h 0.418034 2 7 tcp 1040 ------- 0 2.0 6.0 50 125
- 0.418306 2 7 tcp 1040 ------- 0 2.0 6.0 36 107
+ 0.418545 5 7 ack 40 ------- 0 5.0 0.0 15 111
- 0.418545 5 7 ack 40 ------- 0 5.0 0.0 15 111
+ 0.41861 2 7 tcp 1040 ------- 0 2.0 6.0 40 112
r 0.41889 7 1 ack 40 ------- 0 5.0 0.0 14 99
+ 0.41889 1 0 ack 40 ------- 0 5.0 0.0 14 99
- 0.41889 1 0 ack 40 ------- 0 5.0 0.0 14 99
+ 0.418918 2 7 tcp 1040 ------- 0 2.0 6.0 41 113
- 0.41923 2 7 tcp 1040 ------- 0 2.0 6.0 37 108
- 0.419298 0 1 tcp 1040 ------- 0 0.0 5.0 21 93
r 0.420398 1 0 ack 40 ------- 0 5.0 0.0 13 87
0.42040  0  0  5  0  cwnd_ 15.000
+ 0.420398 0 1 tcp 1040 ------- 0 0.0 5.0 27 126
+ 0.420398 0 1 tcp 1040 ------- 0 0.0 5.0 28 127
- 0.420445 2 7 tcp 1040 ------- 0 2.0 6.0 38 109
+ 0.420934 2 7 tcp 1040 ------- 0 2.0 6.0 42 114
r 0.420978 0 1 tcp 1040 ------- 0 0.0 5.0 19 81
h 0.420978 1 7 tcp 1040 ------- 0 0.0 5.0 19 81
- 0.42137 2 7 tcp 1040 ------- 0 2.0 6.0 39 110
+ 0.421787 2 7 tcp 1040 ------- 0 2.0 6.0 43 117
- 0.422243 2 7 tcp 1040 ------- 0 2.0 6.0 40 112
+ 0.42264 2 7 tcp 1040 ------- 0 2.0 6.0 44 118
+ 0.422658 1 7 tcp 1040 ------- 0 0.0 5.0 18 76
- 0.423096 2 7 tcp 1040 ------- 0 2.0 6.0 41 113
+ 0.423749 2 7 tcp 1040 ------- 0 2.0 6.0 45 119
- 0.424021 2 7 tcp 1040 ------- 0 2.0 6.0 42 114
r 0.424567 7 6 tcp 1040 ------- 0 2.0 6.0 31 102
h 0.424567 6 7 ack 40 ------- 0 6.0 2.0 31 128
+ 0.424602 2 7 tcp 1040 ------- 0 2.0 6.0 46 120
- 0.424874 2 7 tcp 1040 ------- 0 2.0 6.0 43 117
+ 0.425454 2 7 tcp 1040 ------- 0 2.0 6.0 47 121
r 0.425526 7 6 tcp 1040 ------- 0 2.0 6.0 32 103
h 0.425526 6 7 ack 40 ------- 0 6.0 2.0 32 129
- 0.425798 2 7 tcp 1040 ------- 0 2.0 6.0 44 118
r 0.42645 7 6 tcp 1040 ------- 0 2.0 6.0 33 104
h 0.42645 6 7 ack 40 ------- 0 6.0 2.0 33 130
- 0.426723 2 7 tcp 1040 ------- 0 2.0 6.0 45 119
+ 0.426865 5 7 ack 40 ------- 0 5.0 0.0 16 122
+ 0.42693 2 7 tcp 1040 ------- 0 2.0 6.0 48 123
+ 0.42716 2 7 tcp 1040 ------- 0 2.0 6.0 49 124
r 0.427375 7 6 tcp 1040 ------- 0 2.0 6.0 34 105
h 0.427375 6 7 ack 40 ------- 0 6.0 2.0 34 131
- 0.427576 2 7 tcp 1040 ------- 0 2.0 6.0 46 120
- 0.427618 0 1 tcp 1040 ------- 0 0.0 5.0 22 94
+ 0.428034 2 7 tcp 1040 ------- 0 2.0 6.0 50 125
r 0.4283 7 6 tcp 1040 ------- 0 2.0 6.0 35 106
h 0.4283 6 7 ack 40 ------- 0 6.0 2.0 35 132
- 0.428429 2 7 tcp 1040 ------- 0 2.0 6.0 47 121
r 0.42921 1 0 ack 40 ------- 0 5.0 0.0 14 99
0.42921  0  0  5  0  cwnd_ 16.000
+ 0.42921 0 1 tcp 1040 ------- 0 0.0 5.0 29 133
+ 0.42921 0 1 tcp 1040 ------- 0 0.0 5.0 30 134
r 0.429225 7 6 tcp 1040 ------- 0 2.0 6.0 36 107
h 0.429225 6 7 ack 40 ------- 0 6.0 2.0 36 135
- 0.429282 2 7 tcp 1040 ------- 0 2.0 6.0 48 123
r 0.429298 0 1 tcp 1040 ------- 0 0.0 5.0 20 82
h 0.429298 1 7 tcp 1040 ------- 0 0.0 5.0 20 82
- 0.430134 2 7 tcp 1040 ------- 0 2.0 6.0 49 124
r 0.430439 7 6 tcp 1040 ------- 0 2.0 6.0 37 108
h 0.430439 6 7 ack 40 ------- 0 6.0 2.0 37 136
+ 0.430978 1 7 tcp 1040 ------- 0 0.0 5.0 19 81
- 0.430987 2 7 tcp 1040 ------- 0 2.0 6.0 50 125
r 0.431364 7 6 tcp 1040 ------- 0 2.0 6.0 38 109
h 0.431364 6 7 ack 40 ------- 0 6.0 2.0 38 137
r 0.432238 7 6 tcp 1040 ------- 0 2.0 6.0 39 110
h 0.432238 6 7 ack 40 ------- 0 6.0 2.0 39 138
r 0.43309 7 6 tcp 1040 ------- 0 2.0 6.0 40 112
h 0.43309 6 7 ack 40 ------- 0 6.0 2.0 40 139
r 0.434015 7 6 tcp 1040 ------- 0 2.0 6.0 41 113
h 0.434015 6 7 ack 40 ------- 0 6.0 2.0 41 140
+ 0.434567 6 7 ack 40 ------- 0 6.0 2.0 31 128
- 0.434567 6 7 ack 40 ------- 0 6.0 2.0 31 128
r 0.434868 7 6 tcp 1040 ------- 0 2.0 6.0 42 114
h 0.434868 6 7 ack 40 ------- 0 6.0 2.0 42 141
+ 0.435526 6 7 ack 40 ------- 0 6.0 2.0 32 129
- 0.435526 6 7 ack 40 ------- 0 6.0 2.0 32 129
r 0.435793 7 6 tcp 1040 ------- 0 2.0 6.0 43 117
h 0.435793 6 7 ack 40 ------- 0 6.0 2.0 43 142
- 0.435938 0 1 tcp 1040 ------- 0 0.0 5.0 23 100
- 0.436065 5 7 ack 40 ------- 0 5.0 0.0 16 122
+ 0.43645 6 7 ack 40 ------- 0 6.0 2.0 33 130
- 0.43645 6 7 ack 40 ------- 0 6.0 2.0 33 130
r 0.436718 7 6 tcp 1040 ------- 0 2.0 6.0 44 118
h 0.436718 6 7 ack 40 ------- 0 6.0 2.0 44 143
+ 0.437375 6 7 ack 40 ------- 0 6.0 2.0 34 131
- 0.437375 6 7 ack 40 ------- 0 6.0 2.0 34 131
r 0.43757 7 6 tcp 1040 ------- 0 2.0 6.0 45 119